LAMMPS (11 Aug 2017)
# 3d Lennard-Jones fluid
# Validate with https://mmlapps.nist.gov/srs/LJ_PURE/md.htm

# Initialize simulation
clear
units		lj      # Units type: Lennard-Jones
dimension 3         # 3D simulation
boundary p p p      # Periodic boundary conditions in all directions
atom_style	atomic  # Atom style: atoms

# Create atoms
lattice		sc 0.9                  # Lattice type and density
Lattice spacing in x,y,z = 1.03574 1.03574 1.03574
region		box block 0 8 0 8 0 8   # Specify simulation box dimensions, in # of atoms
create_box	1 box                   # Create the simulation box, 1 type of atom, in box
Created orthogonal box = (0 0 0) to (8.28595 8.28595 8.28595)
  1 by 1 by 1 MPI processor grid
create_atoms	1 box               # Fill entire simulation box with atoms of type 1
Created 512 atoms
mass		1 1.0                   # Specify mass of atom type 1

# Initial atom velocities
velocity	all create 0.4 54321 rot yes  # Input temperature and random seed

# Force field
pair_style	lj/cut 3.0              # Use truncated Lennard-Jones potential
pair_modify tail yes                # with long range corrections
pair_coeff	1 1 1.0 1.0 3.0         # and specified coefficients and cutoff

# Neighbor lists
neighbor	0.3 bin                 # Padding of neighbors beyond the cutoff
neigh_modify	every 20 delay 0 check no

# Other settings
fix		1 all nve                   # NVE ensemble
timestep 0.002

# Output settings
# Save the time evolution of the positions of all of the atoms
dump		id all atom 100 dump.LJ_fluid

# Compute and save the radial distribution function, with specified # of bins
compute myRDF all rdf 50
fix 2 all ave/time 8 20 20000 c_myRDF[*] file out.rdf mode vector

# Specify how often to save thermodynamic properties & which ones
compute msd all msd com yes
thermo		100
thermo_style custom step time pe ke etotal temp press c_msd[4]

# Run simulation for specified number of time steps
run		20000
Neighbor list info ...
  update every 20 steps, delay 0 steps, check no
  max neighbors/atom: 2000, page size: 100000
  master list distance cutoff = 3.3
  ghost atom cutoff = 3.3
  binsize = 1.65, bins = 6 6 6
  2 neighbor lists, perpetual/occasional/extra = 1 1 0
  (1) pair lj/cut, perpetual
      attributes: half, newton on
      pair build: half/bin/atomonly/newton
      stencil: half/bin/3d/newton
      bin: standard
  (2) compute rdf, occasional, copy from (1)
      attributes: half, newton on
      pair build: copy
      stencil: none
      bin: none
Per MPI rank memory allocation (min/avg/max) = 4.089 | 4.089 | 4.089 Mbytes
Step Time PotEng KinEng TotEng Temp Press c_msd[4] 
       0            0   -5.4516985   0.59882813   -4.8528703          0.4     5.195428 3.5005703e-30 
     100          0.2   -5.6388497   0.78303709   -4.8558126    0.5230463      4.31083  0.019938964 
     200          0.4   -6.1689483    1.2952879   -4.8736604   0.86521514    2.3276623   0.13488403 
     300          0.6    -6.114923    1.2381586   -4.8767644   0.82705443    2.7132605   0.20798947 
     400          0.8   -6.1586562    1.2814089   -4.8772473   0.85594436     2.575309   0.25980974 
     500            1   -6.1888063    1.3103272    -4.878479   0.87526099    2.4790454     0.302877 
     600          1.2   -6.1747085    1.2964298   -4.8782787   0.86597791     2.583942   0.34917068 
     700          1.4   -6.1496681    1.2713196   -4.8783485   0.84920497    2.6752411   0.38003761 
     800          1.6   -6.1469982    1.2683991   -4.8785992   0.84725416    2.6210517     0.402247 
     900          1.8   -6.1848635    1.3072004   -4.8776632   0.87317233    2.4302011   0.44843793 
    1000            2   -6.2099351    1.3321055   -4.8778297   0.88980822    2.3719922   0.50260302 
    1100          2.2   -6.1223527    1.2444628   -4.8778899   0.83126541    2.7725443   0.55463771 
    1200          2.4    -6.252988    1.3751761    -4.877812   0.91857814    2.2062185   0.59911322 
    1300          2.6   -6.1597914    1.2817352   -4.8780561   0.85616235    2.6341435   0.63934545 
    1400          2.8    -6.234884    1.3567945   -4.8780895   0.90629979    2.2664895   0.67007648 
    1500            3   -6.1441465    1.2658381   -4.8783083   0.84554354    2.6580581   0.70368511 
    1600          3.2   -6.1750458    1.2968809   -4.8781649   0.86627924    2.5224256   0.75007194 
    1700          3.4   -6.1406277     1.262007   -4.8786207   0.84298444    2.6254361   0.78538907 
    1800          3.6   -6.2097104    1.3310596   -4.8786508   0.88910962    2.4478022   0.81702687 
    1900          3.8   -6.2171461    1.3383757   -4.8787705   0.89399653    2.2879117   0.84544795 
    2000            4   -6.1563451    1.2781563   -4.8781889   0.85377171    2.6521838   0.87434324 
    2100          4.2   -6.2376028    1.3597844   -4.8778184   0.90829693    2.2223531   0.87330393 
    2200          4.4     -6.18313     1.305068    -4.878062   0.87174794    2.5006025   0.89672757 
    2300          4.6   -6.1607196    1.2825146    -4.878205   0.85668292    2.5551437   0.92480471 
    2400          4.8   -6.1885151    1.3096076   -4.8789075    0.8747803    2.5519269   0.96106175 
    2500            5   -6.2089768    1.3302014   -4.8787754   0.88853635    2.4324561    1.0301911 
    2600          5.2   -6.2071804    1.3289461   -4.8782343   0.88769784    2.4734943    1.0786752 
    2700          5.4   -6.2134214     1.333789   -4.8796324   0.89093279    2.4276146    1.1221285 
    2800          5.6    -6.210635    1.3323619    -4.878273   0.88997954     2.395815    1.1350541 
    2900          5.8   -6.1960891    1.3182013   -4.8778878    0.8805206    2.4327223     1.165609 
    3000            6   -6.1638113    1.2855152   -4.8782961   0.85868723    2.6320144    1.2013899 
    3100          6.2   -6.2101286    1.3317482   -4.8783804   0.88956959    2.3710591    1.2586526 
    3200          6.4   -6.2204915    1.3420175   -4.8784741   0.89642914    2.3817436    1.2807693 
    3300          6.6   -6.1798969    1.3017464   -4.8781506   0.86952921    2.4939926    1.3198166 
    3400          6.8   -6.1987286    1.3205617   -4.8781669    0.8820973    2.3603966    1.3516609 
    3500            7   -6.1402753    1.2618689   -4.8784064   0.84289224    2.6567818    1.3914196 
    3600          7.2   -6.1957893    1.3177197   -4.8780696   0.88019894    2.4428018    1.4279981 
    3700          7.4   -6.1399481    1.2613663   -4.8785818   0.84255646    2.7383015    1.4455715 
    3800          7.6   -6.1499357    1.2711166   -4.8788191   0.84906943    2.7038314     1.455097 
    3900          7.8   -6.2482995    1.3700205   -4.8782791   0.91513434    2.1849361    1.4579561 
    4000            8   -6.1810301    1.3020872   -4.8789429    0.8697569    2.5152305    1.4901573 
    4100          8.2   -6.1988359    1.3212897   -4.8775462   0.88258362    2.4648113    1.5113068 
    4200          8.4   -6.1640577    1.2863283   -4.8777294   0.85923035    2.6044805    1.5547683 
    4300          8.6   -6.2204412     1.342652   -4.8777892   0.89685302    2.3062304    1.5704875 
    4400          8.8   -6.1805192    1.3023854   -4.8781338   0.86995608     2.542529    1.5940591 
    4500            9    -6.170214    1.2925073   -4.8777067   0.86335779    2.6093867    1.6219247 
    4600          9.2    -6.224997    1.3472862   -4.8777108   0.89994853    2.2963381    1.6361859 
    4700          9.4   -6.2108735    1.3327884   -4.8780851   0.89026439    2.3540253    1.6514689 
    4800          9.6    -6.237307    1.3590002   -4.8783068   0.90777316    2.2755573    1.6665524 
    4900          9.8   -6.2437643     1.366145   -4.8776193   0.91254563    2.2358595     1.684569 
    5000           10    -6.182825    1.3050469   -4.8777781   0.87173386     2.544082    1.7283536 
    5100         10.2   -6.1944878    1.3165004   -4.8779874   0.87938449     2.435318    1.7701271 
    5200         10.4   -6.1840343    1.3056703    -4.878364   0.87215031    2.4793852    1.7855496 
    5300         10.6   -6.1926598    1.3139122   -4.8787476   0.87765565    2.4614626    1.8192537 
    5400         10.8   -6.1977122    1.3188039   -4.8789083   0.88092315    2.4778129    1.8616063 
    5500           11   -6.1644622    1.2852452    -4.879217   0.85850694    2.6219099    1.8743258 
    5600         11.2   -6.2102799     1.331217   -4.8790629   0.88921471    2.4037459    1.9233565 
    5700         11.4   -6.1827001    1.3041378   -4.8785623    0.8711266    2.4828148    1.9936794 
    5800         11.6   -6.2137585    1.3355844   -4.8781741   0.89213205    2.4595672    2.0657091 
    5900         11.8   -6.1945703    1.3160118   -4.8785585   0.87905814    2.4732551    2.0951294 
    6000           12   -6.1616332     1.283401   -4.8782323   0.85727503    2.6198852    2.1265808 
    6100         12.2   -6.1987673    1.3210235   -4.8777438   0.88240581    2.4642758    2.1370168 
    6200         12.4   -6.1650425     1.286682   -4.8783605   0.85946666    2.6165085    2.1846936 
    6300         12.6   -6.1914413    1.3124529   -4.8789884   0.87668087    2.5046124    2.2310025 
    6400         12.8     -6.17858    1.3005389    -4.878041   0.86872267    2.6544836    2.2838582 
    6500           13   -6.1922535    1.3134211   -4.8788323   0.87732763    2.5078931    2.3112506 
    6600         13.2   -6.1907936    1.3129697   -4.8778239   0.87702607    2.4344262    2.3592478 
    6700         13.4   -6.1833841    1.3046171    -4.878767   0.87144677    2.4602366    2.3915304 
    6800         13.6   -6.2171988    1.3388388     -4.87836   0.89430589    2.3618926    2.4057553 
    6900         13.8   -6.2314408    1.3525694   -4.8788713   0.90347755    2.2912105    2.4270249 
    7000           14   -6.2401141    1.3608391    -4.879275   0.90900144    2.2707897    2.4661679 
    7100         14.2   -6.1849981      1.30585   -4.8791481   0.87227029    2.5634781    2.4953746 
    7200         14.4   -6.1554329    1.2764695   -4.8789633   0.85264501    2.6543973    2.5108252 
    7300         14.6   -6.2032406     1.324245   -4.8789957   0.88455762     2.406222    2.5314403 
    7400         14.8   -6.1689124    1.2902894    -4.878623   0.86187631    2.6384263    2.5379131 
    7500           15   -6.1893765    1.3103685    -4.879008   0.87528858    2.5134995    2.5668589 
    7600         15.2   -6.1843807    1.3052866   -4.8790941   0.87189399    2.5118478    2.6096856 
    7700         15.4    -6.216351    1.3366135   -4.8797375   0.89281942    2.4000102    2.6705097 
    7800         15.6   -6.1574962    1.2792319   -4.8782643   0.85449018    2.6414241    2.7427881 
    7900         15.8   -6.1652948    1.2868277   -4.8784671   0.85956396    2.5357973    2.7713201 
    8000           16   -6.2172254    1.3385622   -4.8786631   0.89412115    2.3718909    2.8152719 
    8100         16.2   -6.1804669     1.301391   -4.8790759   0.86929182    2.5091962    2.8315137 
    8200         16.4   -6.2134046    1.3350364   -4.8783682   0.89176602    2.4057305    2.8833286 
    8300         16.6   -6.1942926    1.3149766   -4.8793159   0.87836664    2.4953546    2.9438573 
    8400         16.8   -6.1488895    1.2696677   -4.8792218   0.84810155    2.7518533    2.9937827 
    8500           17   -6.1909689    1.3110752   -4.8798937   0.87576062    2.6218585    3.0492502 
    8600         17.2    -6.236246    1.3577552   -4.8784908   0.90694149    2.3418433     3.113302 
    8700         17.4   -6.1939872    1.3155622   -4.8784251   0.87875776    2.4457679    3.1490744 
    8800         17.6   -6.1915697    1.3127175   -4.8788522    0.8768576    2.4402298    3.1957389 
    8900         17.8   -6.2396333    1.3612578   -4.8783755   0.90928117    2.2469599     3.266289 
    9000           18   -6.2229233    1.3445666   -4.8783567   0.89813189    2.4204866    3.2934462 
    9100         18.2   -6.2363345    1.3580741   -4.8782604   0.90715451    2.3035628    3.3061008 
    9200         18.4   -6.2082593    1.3296313    -4.878628   0.88815552    2.3965059    3.3326045 
    9300         18.6   -6.2066198    1.3288939    -4.877726   0.88766296    2.4289422    3.4233433 
    9400         18.8   -6.1223084    1.2443933   -4.8779151     0.831219    2.7668227    3.4826758 
    9500           19   -6.2764356    1.3983916    -4.878044   0.93408542    2.0271972    3.5014907 
    9600         19.2   -6.1905209    1.3131778    -4.877343   0.87716509    2.4962767     3.546283 
    9700         19.4   -6.1788999    1.3016726   -4.8772273   0.86947993    2.4582617    3.5764649 
    9800         19.6     -6.23833    1.3611006   -4.8772294   0.90917616    2.2626823    3.6084982 
    9900         19.8   -6.2034473    1.3248642   -4.8785831   0.88497125    2.4725729    3.6546913 
   10000           20   -6.2303062    1.3517731   -4.8785332   0.90294562    2.2897804    3.6950235 
   10100         20.2   -6.1817661    1.3034021    -4.878364   0.87063518    2.5097705    3.7162554 
   10200         20.4    -6.176806    1.2987726   -4.8780334   0.86754283    2.4864685    3.7208216 
   10300         20.6   -6.2181893    1.3401814   -4.8780079   0.89520268    2.3494645    3.7748323 
   10400         20.8   -6.2036582    1.3247317   -4.8789265   0.88488277     2.369431    3.8490398 
   10500           21   -6.2026528    1.3239298    -4.878723   0.88434708    2.4267999      3.87538 
   10600         21.2   -6.2236575     1.345455   -4.8782025   0.89872534    2.2709479    3.8768172 
   10700         21.4   -6.1681064    1.2894549   -4.8786515   0.86131884    2.6405425    3.9193398 
   10800         21.6    -6.192949    1.3143662   -4.8785828   0.87795888    2.4364415    3.9513421 
   10900         21.8   -6.1961769    1.3176248   -4.8785521   0.88013555    2.4706343    4.0341802 
   11000           22   -6.2546359    1.3763561   -4.8782798   0.91936637    2.1842345    4.0689531 
   11100         22.2   -6.2461133    1.3675917   -4.8785216   0.91351202    2.2184443    4.1104942 
   11200         22.4     -6.18363     1.305887    -4.877743   0.87229505    2.5661453    4.1912377 
   11300         22.6   -6.1923703    1.3139189   -4.8784515   0.87766009    2.5424313    4.2298914 
   11400         22.8    -6.169374    1.2913603   -4.8780137    0.8625916    2.5964339    4.2309872 
   11500           23   -6.2114737    1.3325075   -4.8789662   0.89007674    2.4366065     4.257313 
   11600         23.2   -6.2183191    1.3391174   -4.8792017     0.894492    2.5186645    4.2941009 
   11700         23.4   -6.2492135    1.3704075   -4.8788059    0.9153929    2.3277887    4.3074142 
   11800         23.6   -6.1936434     1.314598   -4.8790454   0.87811373    2.5058958    4.3595242 
   11900         23.8   -6.1513354    1.2728445   -4.8784909   0.85022361    2.6785393    4.3601643 
   12000           24   -6.1564714    1.2787997   -4.8776717   0.85420151    2.5807219    4.3968127 
   12100         24.2   -6.1923226     1.313949   -4.8783736   0.87768023    2.4852534    4.4659288 
   12200         24.4   -6.2162252     1.338424   -4.8778012   0.89402883    2.3713138    4.4953359 
   12300         24.6   -6.2170167    1.3384811   -4.8785356   0.89406698    2.3325955    4.4877144 
   12400         24.8   -6.1855252     1.306883   -4.8786422    0.8729603    2.4485342     4.517517 
   12500           25   -6.2164063    1.3377289   -4.8786774   0.89356452    2.4416919    4.5510712 
   12600         25.2   -6.2225922    1.3444163   -4.8781759    0.8980315    2.4413535    4.5637481 
   12700         25.4   -6.1896412    1.3105034   -4.8791378   0.87537864    2.4716132    4.5471535 
   12800         25.6   -6.2286144    1.3497185    -4.878896   0.90157319    2.2992819    4.5820411 
   12900         25.8     -6.20633    1.3269512   -4.8793788   0.88636531    2.4825623    4.6447687 
   13000           26   -6.1398346    1.2612013   -4.8786333   0.84244627     2.749306    4.6750391 
   13100         26.2   -6.2037567    1.3258812   -4.8778755   0.88565056    2.4294836    4.7503508 
   13200         26.4   -6.1826472    1.3044768   -4.8781705   0.87135305    2.5728242    4.7738849 
   13300         26.6   -6.1940669    1.3159098   -4.8781571      0.87899    2.5136015    4.8129749 
   13400         26.8   -6.1964132    1.3176087   -4.8788045    0.8801248    2.4142594    4.8464859 
   13500           27   -6.1499967    1.2704819   -4.8795148   0.84864547    2.6288366    4.8844434 
   13600         27.2   -6.1809408    1.3023929   -4.8785479   0.86996107    2.4772026    4.9533044 
   13700         27.4   -6.1007562    1.2228436   -4.8779126   0.81682444    2.9169169     5.018147 
   13800         27.6   -6.2149263    1.3363163   -4.8786101   0.89262091    2.4005058    5.0563502 
   13900         27.8   -6.1854216    1.3072389   -4.8781827    0.8731981    2.5076225    5.1015041 
   14000           28   -6.1400871    1.2617409   -4.8783463   0.84280669     2.653093    5.1589363 
   14100         28.2   -6.2557867    1.3776232   -4.8781635   0.92021276    2.1950162    5.1750159 
   14200         28.4   -6.1618041    1.2839016   -4.8779025   0.85760942    2.6920288     5.183808 
   14300         28.6   -6.2070969    1.3288353   -4.8782616   0.88762383    2.4517786    5.2007453 
   14400         28.8   -6.1533029    1.2750325   -4.8782704   0.85168511    2.6777842    5.2610068 
   14500           29   -6.1690568    1.2903807   -4.8786761   0.86193725    2.5772939    5.2513401 
   14600         29.2   -6.2098591    1.3308822    -4.878977   0.88899109    2.4478553    5.2500725 
   14700         29.4   -6.2065385    1.3276268   -4.8789117   0.88681658     2.500138    5.2922899 
   14800         29.6   -6.1749021    1.2963673   -4.8785348   0.86593614    2.6012474     5.332684 
   14900         29.8   -6.2348587    1.3553981   -4.8794606   0.90536704    2.2670016    5.3286791 
   15000           30   -6.2008872    1.3214267   -4.8794605   0.88267511    2.4115351    5.3159652 
   15100         30.2   -6.1729213    1.2939573    -4.878964   0.86432631    2.5749458    5.3317636 
   15200         30.4    -6.209759    1.3308919   -4.8788671   0.88899757    2.3900428    5.3658414 
   15300         30.6   -6.2154111    1.3372026   -4.8782085   0.89321293    2.3812741    5.3881433 
   15400         30.8   -6.1941962    1.3156159   -4.8785802   0.87879368    2.4645351    5.4028079 
   15500           31   -6.2148201    1.3366133   -4.8782068   0.89281935    2.3839242    5.4380888 
   15600         31.2   -6.2045077    1.3265445   -4.8779632   0.88609363    2.5006474    5.4842119 
   15700         31.4   -6.2195261    1.3409758   -4.8785503   0.89573335    2.4024169    5.5364643 
   15800         31.6   -6.1972261    1.3187513   -4.8784748     0.880888    2.4524882    5.6136802 
   15900         31.8      -6.1724    1.2942691    -4.878131    0.8645346    2.5750573    5.6438715 
   16000           32   -6.1957524    1.3175581   -4.8781943     0.880091    2.4744768    5.6501462 
   16100         32.2   -6.1908254    1.3123912   -4.8784342   0.87663967    2.4231557    5.6389218 
   16200         32.4   -6.2273125    1.3486959   -4.8786166   0.90089017    2.3705964    5.6380101 
   16300         32.6    -6.218574    1.3400124   -4.8785616   0.89508986    2.3993441    5.6201966 
   16400         32.8   -6.2211852    1.3423787   -4.8788065   0.89667045     2.387647    5.6302239 
   16500           33   -6.1985743     1.320123   -4.8784513   0.88180426    2.4888645    5.6295928 
   16600         33.2    -6.199988    1.3213759    -4.878612    0.8826412    2.4566008    5.7070915 
   16700         33.4   -6.2428703    1.3647561   -4.8781142   0.91161793    2.2228352    5.7119492 
   16800         33.6   -6.2424439    1.3634118   -4.8790321   0.91071995    2.2635106    5.7531162 
   16900         33.8   -6.2199667    1.3408941   -4.8790725    0.8956788     2.462503    5.8118731 
   17000           34   -6.1817967    1.3034956   -4.8783011   0.87069763    2.4670376     5.858411 
   17100         34.2    -6.224501    1.3455038   -4.8789972   0.89875792    2.4210971    5.8943013 
   17200         34.4   -6.1762731    1.2981801   -4.8780929   0.86714708    2.6409835    5.9485828 
   17300         34.6   -6.1649481    1.2863572   -4.8785909   0.85924968    2.6380384    5.9793729 
   17400         34.8   -6.2002026    1.3225705   -4.8776321   0.88343912    2.3846274    6.0353418 
   17500           35   -6.2442839     1.365514     -4.87877   0.91212415    2.1958711    6.0799311 
   17600         35.2   -6.2074175    1.3294014   -4.8780162   0.88800195    2.3922442    6.1530373 
   17700         35.4   -6.1823433    1.3043871   -4.8779562   0.87129316    2.5335202    6.1766492 
   17800         35.6    -6.213203    1.3345106   -4.8786925   0.89141477    2.3566819    6.2030641 
   17900         35.8    -6.179904    1.3016523   -4.8782517   0.86946638    2.5061032    6.2485227 
   18000           36   -6.2489891    1.3708563   -4.8781328   0.91569265    2.2181072    6.2475471 
   18100         36.2   -6.1944961    1.3162131    -4.878283   0.87919254    2.4969401    6.2427927 
   18200         36.4   -6.1933517     1.314743   -4.8786087   0.87821061    2.4490382    6.2229913 
   18300         36.6   -6.2182932    1.3401283   -4.8781649   0.89516726    2.3593269    6.2346004 
   18400         36.8   -6.2057439    1.3270771   -4.8786667   0.88644943    2.4702674    6.2902155 
   18500           37   -6.1702393    1.2907187   -4.8795206   0.86216305    2.5497001    6.3168441 
   18600         37.2   -6.2380961    1.3590398   -4.8790563   0.90779959    2.3016917    6.3631664 
   18700         37.4   -6.1971423    1.3189168   -4.8782255   0.88099858    2.5240154    6.4133013 
   18800         37.6   -6.1927686    1.3149702   -4.8777984   0.87836236    2.4754536    6.4683058 
   18900         37.8   -6.1755182    1.2967173   -4.8788009    0.8661699    2.5547416    6.5303704 
   19000           38   -6.1550179    1.2765998   -4.8784182   0.85273199    2.5833007    6.6097569 
   19100         38.2    -6.182487    1.3045267   -4.8779603   0.87138642    2.5061117     6.590086 
   19200         38.4   -6.2318707    1.3533879   -4.8784827   0.90402428    2.2597856    6.5774313 
   19300         38.6   -6.2346049    1.3562931   -4.8783119   0.90596484    2.2185679     6.607658 
   19400         38.8   -6.2374032     1.359579   -4.8778242   0.90815975    2.2520463    6.6565606 
   19500           39   -6.2103412    1.3314808   -4.8788603   0.88939098    2.4638445    6.6407109 
   19600         39.2   -6.2417653    1.3633858   -4.8783794    0.9107026    2.1928782    6.6172408 
   19700         39.4   -6.1867331    1.3086596   -4.8780735   0.87414703    2.4681168    6.6794186 
   19800         39.6   -6.2170244    1.3385808   -4.8784437   0.89413353    2.3949901    6.7503714 
   19900         39.8   -6.1759305    1.2978902   -4.8780404   0.86695338    2.5675189    6.7675106 
   20000           40   -6.1786306    1.3010956   -4.8775349   0.86909452    2.5354183    6.7965088 
Loop time of 12.3248 on 1 procs for 20000 steps with 512 atoms

Performance: 280411.092 tau/day, 1622.749 timesteps/s
99.7% CPU use with 1 MPI tasks x no OpenMP threads

MPI task timing breakdown:
Section |  min time  |  avg time  |  max time  |%varavg| %total
---------------------------------------------------------------
Pair    | 10.541     | 10.541     | 10.541     |   0.0 | 85.53
Neigh   | 1.1951     | 1.1951     | 1.1951     |   0.0 |  9.70
Comm    | 0.29384    | 0.29384    | 0.29384    |   0.0 |  2.38
Output  | 0.10144    | 0.10144    | 0.10144    |   0.0 |  0.82
Modify  | 0.13691    | 0.13691    | 0.13691    |   0.0 |  1.11
Other   |            | 0.05657    |            |       |  0.46

Nlocal:    512 ave 512 max 512 min
Histogram: 1 0 0 0 0 0 0 0 0 0
Nghost:    2400 ave 2400 max 2400 min
Histogram: 1 0 0 0 0 0 0 0 0 0
Neighs:    34806 ave 34806 max 34806 min
Histogram: 1 0 0 0 0 0 0 0 0 0

Total # of neighbors = 34806
Ave neighs/atom = 67.9805
Neighbor list builds = 1000
Dangerous builds not checked
Total wall time: 0:00:12
